156
14.1421356237 14.1421356237 14.1421356237 LAMMPS data file from restart file: timestep = 181, procs = 1
Cu	-3.51694630626	-3.66906737089	-5.83231022713
Cu	6.67495841164	-5.29102984191	-2.40534307868
Cu	-3.54614136733	-5.71537167207	-2.1400006902
Cu	-3.90743255799	6.53390993995	-3.84744826322
Zr	-3.2456387426	-2.96508966423	-2.89483426297
Zr	-5.43277166277	-3.9561084366	-1.02773820589
Zr	6.17051335263	-2.99420507921	6.48981045822
Zr	-5.34310124393	-5.02569538664	-4.27553299037
Cu	-1.03655882577	-6.31201107922	-1.65226583102
Zr	-0.912622302652	-2.48527043731	-5.07067147745
Zr	-0.402014319062	-6.90945309871	7.03807793089
Zr	0.905024069868	-4.95526877477	-4.95760824432
Zr	1.68050687785	-2.59269428302	-2.56531640715
Zr	-1.98182079509	-5.65122806808	-4.28560224476
Cu	3.31238753843	-4.14187474148	-4.42983994683
Cu	6.71618717236	-5.54924184214	-6.50937594923
Zr	5.11304994014	-6.55309174683	-4.33207583429
Zr	3.98363454263	-4.94571485015	-6.92534713706
Zr	5.92631649936	-3.54226849224	-4.52455444431
Zr	2.47934532267	6.63292971905	-5.73276549141
Cu	-5.89072298589	0.828996921639	-4.18568063875
Cu	-6.98057438938	-0.735802163393	-5.80662623054
Cu	-5.86926625909	-2.88643784563	-5.85475520506
Zr	-1.24936053011	0.626268331113	-6.04059114393
Zr	-5.5050071112	-1.06395116057	5.97613358826
Zr	-4.48341836894	1.94834190947	-6.38684572358
Zr	-4.03365786235	-0.966797372258	-5.36595397804
Cu	0.321843264042	-0.338610587291	-3.81081085934
Zr	0.908073972105	2.92585818981	-4.42963343815
Zr	2.10968741288	-1.98006442856	-5.69915284437
Cu	4.7968798406	-1.33940276426	-5.98106627105
Cu	6.1122949668	-3.20220053652	-1.26250715846
Cu	5.59234110178	0.169196073245	-3.99967736094
Cu	1.60247962881	0.662747859183	-5.65883129448
Zr	6.37217469157	2.00170885542	-6.0354840067
Al	-3.9892081303	4.68804392525	-5.52192106397
Zr	-6.39446945911	6.4233874915	-5.02289124652
Zr	-6.03446421219	3.55987499245	-3.57212422299
Zr	-4.27043895461	4.37393262173	5.78653924428
Cu	-1.74385277554	5.70987102686	-4.75877538008
Cu	-3.50102406706	1.64412671378	-3.88475239285
Cu	0.361550149465	4.83154644051	-6.13226429283
Cu	-1.86574275231	3.17561899499	-5.30759566808
Cu	-0.888836643186	4.31688100682	-2.57736420581
Zr	0.498929298692	6.37074810985	-3.39328163089
Zr	-2.83550655316	5.79901444176	-1.19894090924
Al	5.94175523864	5.44664300464	-2.59836076259
Cu	3.7887584544	2.08262178979	-4.78318448944
Cu	5.64820680474	4.4067363141	-4.86974289079
Cu	-6.302310927	4.22307825429	-6.39170105797
Zr	3.34153990168	4.77041036538	-3.47566759345
Zr	5.24359098243	2.48762475559	-2.40423770865
Cu	-2.2753364069	-3.37282944441	2.52400199172
Cu	-4.17704859119	-6.11270650166	0.146241035463
Zr	-4.80130827327	-4.77385680149	2.45692582055
Zr	-3.86803028689	-1.98664980411	0.638062762267
Cu	-0.612244260811	-3.98904246189	-2.49848747147
Cu	0.142978250569	-5.81397700526	1.26299728254
Zr	0.593635884155	-3.00825562139	0.900325738001
Zr	-2.0303139958	-4.37861770515	-0.0716387214431
Cu	4.64691510453	-5.30826398778	2.02169739236
Cu	2.76785521406	-6.27195887646	-3.18756054789
Cu	4.09407097894	-4.10396897975	-2.23939077908
Zr	7.04495416036	-6.052041439	0.600259989079
Zr	6.79125912068	-3.19761581239	1.44356806122
Zr	1.49821283869	-5.30295124734	-1.02178986677
Al	-6.52101701423	-1.04201729742	-0.188145448261
Cu	-5.03953529512	0.622864108362	1.0464989243
Cu	-6.68721234086	0.927114531154	-1.9367058771
Cu	-5.44049403266	3.11435180013	1.35137097298
Cu	-2.10897046993	-0.496845227216	-3.60269982695
Zr	-4.11236654909	-0.130935077418	-1.79121325659
Zr	-6.3739894231	-1.75882509058	-3.11075747427
Zr	-2.48791548014	1.12657733526	0.695818085848
Cu	-1.22631449058	-1.12391993123	1.5358224858
Zr	0.456978384343	1.23229585016	0.582959791702
Zr	-1.16958098078	1.66517376636	-2.34967053149
Zr	-0.942491056145	-1.32530098778	-1.22360304583
Cu	2.07479315966	-0.879502742707	-0.542272307824
Cu	4.03945712805	-1.74671936263	-3.63173736879
Cu	5.17293076733	-0.806491413362	1.32094219543
Zr	4.96657838677	-0.689170735821	-1.34048117382
Zr	3.6943489539	-3.21927421978	0.360950008287
Zr	6.53093564576	1.64655609705	0.507236687411
Al	-6.86086774467	4.18448937612	-0.682522997639
Cu	-3.20734715995	4.02252691923	-3.29297599696
Cu	6.46152776012	4.20918969799	1.75545037154
Cu	-2.99260347585	4.06474854678	1.06872361898
Zr	-2.23341125015	-6.9775147817	2.00657843527
Zr	-5.80077676443	6.67842973197	-1.89786282528
Zr	-5.10873335989	5.78031311513	1.09542164202
Zr	-4.32688475476	2.86147105282	-1.11546536567
Cu	-1.16285445115	3.40461825883	-0.252631785605
Cu	2.36087002058	6.17060844677	-1.33240127933
Cu	1.79690990737	3.82026362466	1.31164309899
Zr	-0.0178497913247	5.83780922234	0.0817432872359
Zr	1.51550136199	3.46186345728	-1.40786995366
Cu	4.03041406233	4.01491964303	2.51844404237
Cu	-6.51995431646	7.02950508172	3.11070809889
Cu	5.30703798857	6.40554852327	1.85300623525
Zr	4.59993119474	-6.44642585512	-0.92868305562
Zr	2.5037849332	0.725488779628	-2.73598238731
Zr	2.57180787474	6.69367705482	1.40783164147
Zr	4.38612807895	4.56936523982	-0.211529245409
Al	-4.26479424855	-7.03773345656	4.23968061314
Cu	-4.0533970655	-3.02099638297	4.37508498883
Zr	-5.21244585135	-4.59202710228	6.14643671035
Zr	-2.19111263329	-5.06848284567	4.77809417552
Zr	-3.60781807883	-6.83172145366	-6.76970785734
Al	-0.540221717226	-2.03554621488	3.75439471129
Cu	-1.59907023793	-4.57674677963	-6.7786283558
Cu	1.98789317334	-6.24391282335	6.03419953783
Cu	-0.0410367445316	-4.38248798387	3.26840140535
Zr	-2.17966865398	-2.01268867552	6.2002618179
Zr	0.715555065815	-3.81689750273	6.12074344544
Cu	2.26407380945	-4.80834867079	2.33204376363
Cu	3.27770476952	-4.59042187316	4.62027277424
Zr	6.1628008039	-5.3126776194	4.42659674014
Zr	3.75877432684	6.89200464014	4.26203796397
Zr	4.67577736149	-2.56323220665	3.45560102664
Zr	5.11491197257	5.96787221429	7.00200552288
Cu	-6.51669476443	-2.97437802796	4.09517618347
Cu	-3.17484096552	0.492506231918	5.80563562406
Cu	-5.4297729155	1.61836370138	5.25129554568
Cu	5.59087553376	-0.747596586415	5.28265720704
Zr	-3.47158926766	-0.740470985032	3.3422882852
Zr	-6.63415320927	-0.465985678623	3.01913422658
Cu	1.85656100418	-2.70307506132	3.86094492285
Cu	3.09218216302	-0.44410561735	4.53540184595
Zr	-0.849394369904	0.80681948486	3.57397038731
Zr	3.48955171211	1.61778059329	0.330624121965
Zr	0.750803336201	-0.544437371968	5.93870052575
Zr	-1.71445865562	2.67557526939	5.74084542508
Zr	2.22975985089	-0.7627713345	2.07561557338
Cu	3.37690853018	-2.34064121161	6.03930831562
Zr	3.75604292662	0.775080590917	6.81073042937
Zr	4.80399124553	1.21449504145	3.15310206743
Zr	4.21979336283	3.4820556961	5.31021307919
Al	-5.90721809915	4.61306830673	3.54078124157
Cu	-3.38418090152	4.96537342398	3.26263330228
Cu	-6.78169912889	2.30543213725	3.27769871952
Cu	-1.96005558324	4.97209353085	-7.05393491571
Zr	-6.40049018926	6.5858871737	5.96184532958
Zr	-3.76265959561	2.28091407232	3.30328181082
Cu	-2.03154994094	6.203697379	4.87989001409
Cu	2.19370962584	5.36807103198	6.07293250822
Cu	-0.0555513410456	4.83195047345	5.30615235651
Zr	-0.764117406057	3.94600162621	2.69125586519
Zr	0.460233828392	-6.96362363372	3.81285310157
Zr	1.22161038082	2.61724401815	6.45958902494
Al	1.91579973771	4.70800414547	3.68422078504
Cu	6.32289309622	1.41993513086	5.43617901497
Cu	7.03049761055	3.72094451445	5.59384010283
Cu	3.26621771361	3.92072658922	-6.21677056738
Cu	5.92679903631	5.39957220828	4.11589388749
Zr	1.88381669327	1.93726076308	3.54648618436
