1250
28.2842712476 28.2842712476 28.2842712476 LAMMPS data file from restart file: timestep = 333, procs = 1
 Al	-11.1568932849	-12.7998598926	13.9773759815
 Cu	-9.73340037046	-12.6283922963	-10.2809561261
 Cu	-11.9961720377	-10.9143405214	-10.7230967774
 Cu	-13.5523286171	-8.00257383289	-13.2307023807
 Zr	13.6527552289	-11.7440712617	-10.64874213
 Zr	-13.0502013613	-10.734779507	-13.4187971087
 Al	-7.26065609062	-11.962730084	-13.0679234877
 Cu	-8.03190989308	-9.55671973109	-13.6892384623
 Zr	-6.71942261276	13.9627279426	13.5901534057
 Zr	-5.4497138517	-10.140807649	-12.1322496981
 Zr	-9.85147587405	-11.0233073067	-12.3462180823
 Zr	-7.44194930892	-11.2202014832	-10.1496567448
 Zr	-5.69144416665	-13.7376591508	-11.4724976431
 Al	-3.11773723813	-13.562690977	-12.5911998052
 Cu	-2.03819934373	-12.8474681844	-10.5314743871
 Cu	-2.83082096405	-11.1486952078	-12.1368438488
 Zr	-4.10219449255	-11.2618114175	-9.42016165607
 Zr	-0.662527550044	-10.2093226049	-13.6618097633
 Al	1.88938447575	-10.7818899712	-12.143965195
 Al	0.425206904018	-12.7134936745	13.1813121377
 Cu	3.30033273127	-13.876125493	-12.0748736515
 Cu	4.73487181265	13.5496619044	-14.0644364276
 Zr	1.92434613602	-12.4756031738	-9.76618611558
 Zr	0.0217735327251	-13.0447442006	-12.3245784153
 Zr	-0.589226561193	-10.471444954	-10.4695149955
 Al	8.24492965876	-11.7818411591	-12.7510390007
 Cu	5.68082395246	-11.0651379104	-13.26827738
 Zr	6.17329662395	-13.6732041703	-11.9417403332
 Zr	8.87889705467	-13.2947917801	-10.2575878584
 Zr	6.63074469172	-10.4005973965	-10.7853525036
 Al	10.0132398702	-9.91126561243	-13.5829146199
 Cu	-13.4643978008	-9.07268125349	-10.926243016
 Zr	12.291680183	-8.94147240967	-12.1693319044
 Zr	9.85596636866	-10.1533391085	-10.708004354
 Zr	11.2159543292	-12.4438601578	-12.2764624045
 Cu	-12.1500700654	-7.09432208347	-11.060714585
 Zr	-13.6600971218	-4.67299528617	-10.7336815798
 Zr	-9.79627474328	-5.50070265562	-11.7474739889
 Zr	-10.6496546757	-8.22841029684	-13.100585072
 Zr	-13.6752616404	-7.32473169691	-8.67189969201
 Cu	-5.33317281831	-8.75861565593	-9.93403642329
 Cu	-7.10261913998	-5.36508107888	-11.3307972828
 Zr	-10.3907579567	-9.10163809285	-9.67813964186
 Zr	-5.07304537951	-6.96561200426	-12.4388445411
 Zr	-7.88076722148	-8.18360034461	-11.3821406964
 Al	-0.933380578009	-5.03399803773	13.8498276212
 Cu	-3.32793676477	-9.06835838633	-13.4434896721
 Cu	-3.01305984104	-5.19621507144	-12.9464347011
 Cu	-0.966802267169	-7.27338165511	-13.2823590511
 Cu	-5.96717290528	-6.55096329351	-9.49734251362
 Zr	-2.70036834516	-8.40315528703	-11.0110509351
 Zr	-1.32858303409	-5.54611973559	-10.8824498673
 Al	3.07259680881	-7.17511687765	-11.1177986775
 Cu	1.1566770481	-6.22317525456	-9.75275191752
 Cu	3.60567359149	-6.19286359873	13.7608582
 Cu	0.30183741154	-7.95816577379	-11.3287786768
 Zr	1.91974158282	-9.24830993157	-9.34584759562
 Zr	1.3645273287	-5.25449381619	-12.6100667414
 Zr	1.88084333119	-8.2902004557	-13.5347773631
 Al	7.88061838451	-8.63706610833	-12.7905036547
 Cu	4.14092387453	-11.0681555048	-8.97518288184
 Cu	3.98961776332	-9.42483898634	-11.6091891206
 Cu	9.33075901768	-4.63067102708	-12.7914645627
 Zr	5.82327610019	-4.50521051933	-9.00606676186
 Zr	4.73477563695	-5.24412253646	-12.2605637932
 Zr	5.25695458494	-8.18580205949	-13.7096760689
 Zr	6.2785227865	-7.13378886317	-10.7736634584
 Al	13.0077997235	-6.15201741972	-13.0646193397
 Al	9.78539782698	-4.3738530446	-10.2071843679
 Cu	12.7643068988	-9.44391897622	-9.54967218438
 Zr	10.2213043454	-7.0041354545	-13.9812484634
 Zr	9.41079736368	-7.07120037113	-11.1053870749
 Zr	11.808957755	-3.60825988013	-12.3586660407
 Zr	12.1214869105	-6.36399007635	-10.2353599423
 Al	-10.935538952	-6.23617316648	-9.1589409443
 Cu	-11.4381143184	-3.60703369873	-12.8029326364
 Zr	-11.0738231319	-3.30417853352	-9.98816963196
 Zr	-9.9364208016	-1.35491589935	-11.8993132385
 Zr	-13.1543354947	-1.60297607366	-12.1047901863
 Al	-9.13763970506	-2.00581027854	-8.57209215988
 Cu	-5.61375706515	-2.0310040195	-10.9699445944
 Cu	-6.34718235339	1.29159685065	-11.7243912055
 Cu	-7.98668117243	-3.05965241537	-11.1107296064
 Zr	-5.99294786696	-3.94062565443	-13.3990106882
 Zr	-7.0565733839	-0.932244133749	-13.088577437
 Zr	-4.36779842147	-4.57806793503	-10.6222672368
 Zr	-2.11941532569	-1.23321713208	13.4781348509
 Zr	-1.18984589317	-2.93604105973	-12.4642688293
 Al	0.36996713692	-0.581332669933	-12.223467897
 Cu	1.88425935773	-2.57460507285	-12.0842236069
 Zr	2.75587002965	-4.04934868693	-9.9716342602
 Zr	3.08733378085	-0.140890774164	-13.1117155614
 Zr	-0.0924601508573	-2.71467464203	-9.71952994322
 Zr	2.40227614885	-0.605022983274	-10.1020272175
 Zr	0.782677006831	-2.43828936264	13.6222494326
 Zr	4.85756566371	-2.32160166925	-11.5649122711
 Al	7.31872285101	-4.27536400026	-11.3978929685
 Cu	10.0493415588	-2.77911740608	13.9757766543
 Cu	8.70970153567	-3.29813670031	-8.16555766768
 Cu	6.68336346408	-3.3247708127	-13.6570401265
 Cu	4.45648615899	-2.22571571775	-8.79774399026
 Zr	7.16577505232	-1.58613530495	-9.63537101725
 Cu	-13.9471701637	0.493986738279	-10.3390033463
 Zr	8.90760293708	-1.75082665724	-12.1662545486
 Zr	12.2064698577	-0.958220958578	-11.1626028923
 Al	-11.7418812969	0.924564696093	-12.4217823138
 Cu	-10.8409942884	2.84024606736	-11.1867335172
 Cu	-12.8848147943	2.77553430437	-13.772684145
 Cu	-8.89757976091	1.24626415068	-12.3289357632
 Zr	-11.19880953	0.121210067013	-9.62588632066
 Zr	-13.4169172672	3.06241177691	-10.909855164
 Zr	-10.1832802241	2.8944034108	14.1403016263
 Cu	-10.4415853863	5.80522259027	13.6015374922
 Cu	-5.13539933097	1.84057652547	-13.7432301094
 Zr	-7.6506130253	-0.251336027566	-9.99542444821
 Zr	-8.68131451015	2.53698329092	-9.74685287498
 Zr	-6.40589137065	3.95443042614	-12.186003496
 Zr	-7.5435580209	1.55741834323	13.0597429782
 Al	-1.35022266797	-0.15530657954	-10.3202515038
 Cu	-0.541669415365	4.1814906059	-13.4585730511
 Cu	-4.02283515946	2.34731553935	-11.2210804675
 Zr	-3.84721966525	-0.106275540569	-12.3989543023
 Zr	-2.09354232667	2.23374980962	-9.11290884573
 Zr	-3.3393264453	4.25249164974	-12.9838201828
 Zr	-1.47052204807	1.78497408434	-12.4812074657
 Al	1.54836361063	2.66155171345	-13.184425497
 Zr	4.01498306212	2.37201752378	-11.4415109652
 Zr	3.81932196285	4.97091405773	-9.06120908041
 Zr	0.789472712533	1.99959555981	-10.5333486889
 Zr	2.08462469982	5.05239680344	-11.6737393536
 Al	8.96513321137	5.37283854455	-12.4938572156
 Al	6.81557827312	3.1700893833	-12.5477832984
 Cu	4.92779267512	0.281625805482	-9.83748103188
 Cu	5.49562739854	2.80410803527	-8.91986061598
 Cu	7.29683061322	2.22914011621	-10.3598183836
 Zr	9.77068889527	4.06980141166	-10.1242222494
 Zr	6.37200143959	0.214035327908	-12.1151868915
 Zr	6.76802117594	5.0473888577	-10.2929563229
 Al	12.2276995545	2.0696893683	-10.5069455088
 Al	13.1400815421	3.94437601318	-13.2473189778
 Cu	10.6969200627	3.46628009921	-12.6417083927
 Cu	11.0176895294	1.11470601448	-12.3342259393
 Zr	12.1411690078	0.252481388556	-8.10371955807
 Zr	8.70353457215	1.33288064853	-13.3339158405
 Zr	9.46615623249	0.816261583216	-10.0750067521
 Zr	13.4955869754	0.938944857714	-13.2765660064
 Al	-7.93155755045	9.42453010085	-13.7366944011
 Zr	-12.9715548899	9.43532363553	-13.0509410632
 Zr	-9.43397010119	4.96755311361	-12.0970182193
 Zr	-10.2279189897	7.85387087501	-12.8231370171
 Zr	-10.4177487167	5.11189300983	-9.28943402403
 Zr	-12.2376549586	7.34804518707	-10.7347416256
 Zr	-12.4623920377	5.28542018803	-12.8461840476
 Cu	-4.7454445353	9.38463683076	-9.85711533857
 Cu	-5.16548368981	6.13239436515	-13.8816423006
 Cu	-7.68955650018	5.24363728127	-9.97399331763
 Zr	-7.22931557841	7.05909509409	-12.2190468628
 Zr	-5.03399910672	9.07628614123	-12.7480466424
 Al	-0.754602408289	8.70556866385	-11.9173523506
 Cu	-4.65181430837	6.37912931722	-11.5645759288
 Zr	-4.10917702388	4.59647138882	-9.57633783242
 Zr	-2.68809321582	7.46303385997	-10.1255297681
 Al	4.37091597028	6.84257941516	-11.0887622369
 Al	4.79507863091	4.80954434495	-12.555824688
 Cu	-0.0940100277318	6.48061663743	-12.5548758601
 Zr	3.68395330335	6.97324069574	14.0911159577
 Zr	0.537416755697	7.18851894984	-9.89324480553
 Zr	0.611609288019	8.36263504267	13.7563070506
 Zr	-1.1976984045	4.63207451163	-10.8207869839
 Al	8.48639249961	7.51771661938	-10.6077809195
 Zr	6.67040521913	7.16700876634	-12.7095952213
 Al	12.863651466	4.37851183776	-9.00773702552
 Al	13.4025199275	7.01414016515	-13.2282032663
 Cu	11.4817707928	5.67665398226	-12.0969920561
 Cu	12.6555003605	8.32160541121	-11.2405051339
 Cu	13.6355527195	5.73676751233	-11.0230540597
 Zr	10.3558919876	8.05555918878	-13.0259980003
 Al	-10.2206927877	13.1737335304	-10.127157748
 Cu	13.8446004482	11.9084312652	-13.0517345863
 Zr	-14.0382784344	13.807408843	-8.80256581818
 Zr	-9.86163115217	10.833600927	-11.9363392809
 Zr	-12.6856421829	12.011417559	-10.9252317157
 Zr	-10.8220425553	9.59845643305	12.9817457109
 Zr	-12.0815631574	-13.4191627414	-11.6211258895
 Al	-6.94002647866	11.9123753689	-12.6469197746
 Cu	-3.96945098257	13.993076978	13.3837916543
 Cu	-7.64156988264	12.8211928227	-10.411955495
 Zr	-7.21733979333	9.93146529985	-10.7456274849
 Zr	-9.03629234544	14.0703204615	-12.5627085572
 Cu	-2.84580787889	10.0340358455	-11.3308227366
 Cu	-4.87351168684	11.8376604018	-10.5168848849
 Zr	-4.14096743672	12.0286002903	-13.0864672156
 Zr	-1.80645593849	12.5067616622	-11.0133259172
 Zr	-1.27023014047	13.1072197552	-14.0921528462
 Cu	1.45288512857	13.251518681	-11.3083129757
 Cu	2.4744671357	10.2556100081	13.8813020085
 Cu	3.25534195916	10.2626804906	-9.65839425808
 Zr	2.36931509498	8.6754274834	-11.9000171995
 Zr	0.462279074791	11.0456723724	-12.5464232772
 Al	10.0622601283	11.1578611688	-12.3580525726
 Al	5.96380262415	12.1404450146	-10.6019978853
 Cu	8.15228857859	9.53575693664	-12.2141244265
 Zr	5.5040617732	9.43044584365	-11.1292174573
 Zr	6.65304055528	11.6623313525	-13.3222669233
 Zr	9.04780475954	13.8228585633	-13.4512462887
 Cu	8.26827113531	12.4744414961	-11.1687906101
 Cu	12.5467456544	9.76323267487	-13.2310790554
 Cu	13.5727898864	13.8914658916	-11.4566207436
 Cu	11.6223476314	14.1174122326	-9.98720974012
 Cu	10.3555715923	9.30738929111	-10.711014591
 Cu	11.6302232281	13.1574803199	-12.6505362881
 Al	-13.0164265384	-10.0102809362	-8.48679553277
 Al	12.9233562212	-9.61788168483	-7.0872029424
 Cu	-10.8051373929	-11.1521402692	-3.78394873251
 Zr	-11.5914357817	-12.4175229856	-8.4523112353
 Al	-6.62344266815	-11.3475241085	-7.31536002086
 Cu	-9.0771747195	-11.0400914311	-7.77252476411
 Cu	-5.17995018015	-10.7681519963	-5.0932667124
 Zr	-7.94335338561	-11.5135600382	-4.77265229137
 Al	-2.92988459413	-11.0990789016	-6.50947276034
 Cu	-2.4629872655	-13.5364663771	-6.18278615092
 Cu	-4.71093253311	-12.8421999578	-6.69908494198
 Zr	-0.926124410753	-12.238604035	-8.10678684569
 Zr	-0.127270451197	-12.5975509349	-5.13488574375
 Zr	-3.56040556567	13.9721200769	-8.93511486579
 Cu	1.73182508815	-11.4903602168	-7.18937170779
 Cu	3.27097876735	13.8813683766	-4.3649102064
 Cu	-0.143839582877	14.0684660321	-9.62787672952
 Zr	3.85050782226	13.4144805901	-9.31996723238
 Zr	4.19041316393	-12.655952721	-6.80087665443
 Al	6.02508447939	-12.7064034959	-9.15316022252
 Al	5.41781345972	-13.2947621014	-4.23815930322
 Cu	9.66055849868	14.1207185427	-7.24487615492
 Zr	9.40582405067	-10.4030206871	-6.32372692601
 Zr	6.37321985559	-10.0773884723	-7.36420825247
 Zr	7.30613842713	-12.7225753902	-6.50143219596
 Cu	13.8582066696	-11.9674911752	-7.81969586063
 Cu	8.38109652869	-11.2444282936	-8.69179192618
 Zr	11.2232964116	-11.9503378831	-8.30917480418
 Zr	10.0335389208	-13.0393194229	-4.64584564388
 Zr	-13.3894408878	-11.1312319884	-5.51941176854
 Al	-12.3805626261	-4.546507913	-7.81630396316
 Cu	-11.9626165193	-7.49635303625	-4.35787213639
 Cu	-9.44057276368	-7.56918832305	-7.59530526208
 Cu	-13.4524396046	-8.37145791889	-6.08140792836
 Zr	-10.843240565	-9.66366161251	-6.26267012027
 Al	-7.5420221318	-8.77824494746	-8.64954924159
 Cu	-8.41858062428	-6.2611843778	-9.37856793113
 Zr	-9.27759248825	-7.30724076447	-4.92927741668
 Zr	-6.87227090104	-6.51592378181	-6.90257767012
 Cu	-1.62724765787	-7.34392173673	-6.58340396681
 Cu	-4.87695166609	-4.76930881629	-7.60303961727
 Cu	-2.30832095748	-9.46244698327	-8.30201728697
 Cu	-5.83176965857	-8.13784595284	-4.85133842478
 Zr	-4.92081184693	-9.01045014135	-7.30313459697
 Zr	-3.30048557044	-6.72381633371	-8.61580074987
 Zr	-3.08875916941	-8.87521900094	-4.77834845912
 Al	1.79890773696	-8.52934508889	-4.80846669672
 Al	-0.591088944412	-7.76579277339	-8.92561766352
 Cu	3.60653174099	-6.55838844708	-5.61190354916
 Cu	4.19687223163	-11.8183795315	-11.3199215187
 Cu	-0.598994003552	-5.20715767449	-8.27652825068
 Zr	3.52227208398	-9.29486416955	-6.71524444525
 Zr	-0.0787582343066	-9.59918740994	-6.69478966255
 Zr	1.07658158447	-6.46928242945	-6.7030221562
 Zr	3.5333844058	-6.46235206817	-8.41091042564
 Al	4.76969252666	-8.76037987791	-9.28430125667
 Cu	7.95353867754	-8.62719082108	-9.11445664673
 Cu	8.50712466943	-7.7166689365	-6.94773479951
 Zr	5.84656473582	-5.04145417934	-4.57740608429
 Zr	5.95994518744	-7.0876287136	-6.97297767773
 Al	8.52032328154	-6.20675906394	-4.94246126328
 Cu	12.4802803111	-7.21781183699	-6.46774575762
 Cu	8.13301249854	-6.04412937465	-8.93719874199
 Cu	10.3296887372	-8.00541745853	-5.32395217064
 Cu	10.9357470414	-5.68574650951	-4.64961269215
 Zr	10.6917074876	-8.37068244033	-8.3561387957
 Cu	13.7697090471	-1.09901235666	-6.22126280416
 Cu	-8.37677353741	-4.87115023185	-4.77869457309
 Zr	-9.38111018623	0.614055639897	-7.12799179413
 Zr	-11.4853191996	-1.86871764067	-7.03125718826
 Zr	-11.4240045139	-4.47827911226	-5.03159087527
 Zr	-13.9131495978	-2.06599969226	-8.92554843716
 Zr	-9.40344292819	-4.59868480037	-7.34385140739
 Zr	-12.7218186876	-1.48872325984	-4.13019873196
 Al	-6.92212102749	-4.03911071589	-8.98942100564
 Cu	-6.8108324734	-3.77260043881	-6.30174083161
 Cu	-4.55921594268	2.6757315654	-7.60412573981
 Cu	-4.77817287931	-2.53473270482	-8.70507093588
 Cu	-9.63311817408	0.271714646433	-4.44645866095
 Zr	-6.71407179596	-1.34488244873	-7.23770151603
 Al	-3.05215635121	-2.08447745532	-10.413277834
 Al	-2.58772492779	-3.8337946857	-8.34649065572
 Cu	-4.71940974893	0.362858021064	-6.50403600618
 Cu	2.00112829199	-2.14190036009	-7.9062522113
 Cu	-0.211150845972	-2.75926108522	-6.9691680777
 Zr	-1.23875200353	-1.5579528809	-4.65880203937
 Zr	-4.60914902453	0.248297705793	-9.34054308975
 Zr	-4.11775458271	-2.66493340859	-5.9923853673
 Cu	4.66631352924	-1.60329907998	-4.82410343508
 Cu	1.02200830486	-3.75944740449	-4.98220409677
 Zr	4.04863059263	-0.181171543285	-7.2409029065
 Zr	1.84186292157	-1.15580685308	-5.29295386719
 Zr	3.55435629378	-3.86525128683	-6.48659510648
 Al	6.75253784088	-2.35778918	-3.74697729564
 Cu	7.54987381152	-4.91428252322	-6.79641211825
 Zr	9.24696811257	-3.12866179384	-5.40348349453
 Zr	6.45719766409	-2.39267980377	-6.67174568611
 Al	10.1425060034	-1.84560605416	-9.57489436354
 Cu	-13.4259826112	0.518772966583	-7.90032042381
 Cu	-13.6563409719	-3.3391870732	-5.99575030608
 Cu	11.3313740116	-0.8302157359	-5.10662035735
 Cu	12.1313505422	-3.53492076631	-9.72256319949
 Zr	12.3499782423	-3.51576137704	-4.60262230974
 Zr	11.5275469022	-2.51663876367	-7.30064199442
 Zr	13.2196362211	-4.93577152854	-7.58765985702
 Zr	10.3146245979	-5.49001403419	-7.37626210923
 Cu	-11.0459249313	5.05173039038	-6.38457086923
 Cu	-13.0366247018	3.24683234892	-5.62137590686
 Zr	-11.8451555913	2.7859208637	-8.0732710795
 Zr	-10.3326188054	2.97427020883	-4.66576731855
 Zr	-12.1248140397	0.771915261454	-5.58696558889
 Al	-6.6573768037	4.21075932639	-7.98333102636
 Al	-6.78116628223	1.54927150302	-7.53483878817
 Cu	-9.12842084581	3.41971573463	-7.18946688771
 Cu	-4.35917088389	2.81103409126	-5.21241762283
 Zr	-7.26608101091	3.43584762902	-5.1295341577
 Zr	-8.45731107362	6.13920059706	-7.01088599035
 Al	-2.40564715596	1.52874738246	-6.36241232556
 Cu	-0.281160651117	1.00702441413	-5.08404613628
 Cu	-5.98863883655	2.5782037792	-9.71360291397
 Zr	-2.35783976948	-1.0067124778	-7.67005402053
 Zr	0.366986411266	0.209746294028	-7.78452464531
 Zr	-3.69511915762	0.174590954665	-4.03251093328
 Zr	0.0125439340196	3.27656764485	-6.9893183444
 Al	2.07040450804	1.76017893085	-5.72532883298
 Cu	2.77515657038	4.14623720639	-6.21836060356
 Cu	4.00597677215	0.698605489521	-4.7140989232
 Cu	1.0588512606	4.43746633096	-9.1903151333
 Zr	2.81144931045	2.24095784885	-8.41854501509
 Zr	5.30692515899	2.8390586122	-6.19624008779
 Al	6.49829424412	0.318859082627	-5.7307092077
 Cu	6.67698470348	0.718788897366	-8.18133399524
 Zr	8.17368090646	4.90807203201	-5.31845211101
 Zr	8.24416452562	2.89356740653	-7.65070527253
 Zr	9.0653802622	-0.418975709138	-7.21124794594
 Cu	13.2413962006	2.76524550078	-6.98831209785
 Cu	10.9966792716	2.54777338659	-8.3574814764
 Zr	13.2574722153	1.0902309301	-4.57075636323
 Zr	10.5614029713	1.93851270033	-5.64868274667
 Cu	-13.7262789768	8.43621806292	-6.00010742186
 Cu	-13.072991777	5.20718609726	-9.19584302479
 Zr	-9.0759950799	7.82590866275	-9.76412819364
 Zr	-13.8344694727	5.55068197567	-6.62114962985
 Zr	-9.14920224406	9.19382893552	-6.91995398305
 Zr	-11.6209934141	7.50008537183	-7.66639585832
 Al	-6.45323285758	8.155728019	-6.22340502919
 Cu	-8.34773269405	7.71030877181	-4.6483507937
 Cu	-9.32016876033	5.48613936138	-4.47831218117
 Cu	-3.34314098209	6.38049586957	-7.67093777568
 Zr	-5.98161340568	7.06788471571	-9.00319182858
 Zr	-5.21775004431	5.58969761055	-5.84296552851
 Cu	-2.72964797773	4.09153392175	-6.72066135502
 Cu	-4.23378644473	8.65798526512	-7.40757604404
 Cu	-1.1543611909	5.51344047705	-8.25323203015
 Cu	-3.13277269673	7.54404285855	-5.52154547464
 Cu	3.68616839009	7.90999952839	-4.82504131664
 Zr	-1.21462919701	8.30928288421	-7.3926448722
 Zr	1.55999530423	6.36751031999	-7.19648745953
 Zr	0.922795736607	8.46609784488	-5.06837382468
 Cu	4.22589137891	6.55051554779	-6.86407844434
 Cu	5.35742603051	9.69973650112	-4.19175991298
 Cu	6.24989540086	5.13271099348	-7.45209405599
 Cu	3.19568767821	7.76379923629	-9.15661961851
 Zr	6.53140625719	7.59164432946	-5.63457343637
 Zr	6.04022787346	7.75257960698	-8.74958251736
 Zr	8.68781128708	6.36809966443	-7.95169610296
 Cu	-13.7185420552	9.57534637398	-10.4642004618
 Cu	8.49796330011	9.0016694327	-7.12249729276
 Zr	11.0316069838	4.74536668833	-6.86947581518
 Zr	11.1106335466	6.73698991737	-9.58275999151
 Zr	11.1722542701	9.6503460278	-8.2484773434
 Zr	13.7477704319	7.64131451944	-8.70538124848
 Zr	11.9940135301	7.47439136468	-6.22537699309
 Al	-8.75221702924	11.3436707434	-8.75919188396
 Cu	-13.8865052397	12.4356450007	-6.07870202291
 Cu	-10.7448540318	12.9340085125	-4.50952898377
 Cu	-12.894559936	-13.6598248505	-6.3915164817
 Zr	-13.9537565089	10.6177955208	-8.0507270384
 Zr	-11.1935999768	10.0235289632	-9.24773129851
 Zr	-10.3534937533	-12.988486814	-5.70576004575
 Zr	-11.2859938345	12.7214271764	-7.5862202143
 Cu	-6.70132684917	9.66660729501	-8.13599842371
 Cu	-6.81221869343	-13.8856857244	-6.10258516479
 Zr	-6.07746040937	12.3336117871	-8.01270084938
 Zr	-8.86286121713	11.8393042982	-2.54820345353
 Zr	-8.56840291024	-13.8178326456	-8.13035147548
 Zr	-8.58115035505	12.0982166127	-5.97110785529
 Al	-1.21277840808	13.0640966453	-7.59293671004
 Cu	-0.879968760257	9.71726314884	-9.72656655737
 Cu	-6.03654299066	-13.2435138905	-8.79716946691
 Cu	-3.83785460582	12.6371261395	-6.34022915405
 Cu	-5.31790104026	10.5090939883	-6.08162699925
 Zr	-2.61137155738	10.2720846124	-5.34248583359
 Zr	-2.97369759551	10.9008003884	-8.42737433251
 Cu	1.41513412296	9.13879177069	-8.05639703315
 Cu	2.75794895201	11.5404962919	-7.43580724952
 Zr	2.89063492184	10.911416706	-4.40147528136
 Zr	1.58112807324	13.9558608344	-7.11072894179
 Zr	0.876599834055	11.5842862807	-9.36623544502
 Zr	4.90930164789	12.6773606057	-6.2757362228
 Zr	0.259960995105	10.9850841764	-6.3617488828
 Cu	5.38340226756	10.9038449291	-8.59761482198
 Cu	6.68468487451	10.5647435232	-6.53294005819
 Cu	10.4413205977	9.74867428851	-5.71466713682
 Zr	8.1547102011	10.0474719304	-4.22338373504
 Zr	8.04383060299	10.1869635902	-9.46624419772
 Zr	3.61975277885	11.6344691122	-12.1687267019
 Zr	7.21353143004	13.0780849872	-8.28095876018
 Zr	4.01908130122	9.32988627772	-6.93382802201
 Al	12.8675709934	10.3557247729	-5.58998898465
 Al	9.90526767125	12.3676859285	-9.33140242759
 Cu	9.1647125153	11.4748917629	-6.99389580357
 Zr	12.4237306734	11.3219031923	-10.5925721298
 Zr	11.8716612888	12.5278955015	-7.44711090719
 Cu	-11.0539412836	-11.0570617506	-0.990712280193
 Zr	-12.9074169122	-13.5291414421	-3.53882971583
 Zr	-10.1770421029	-13.4793852524	-2.24057704297
 Zr	-14.0507909005	13.1645725263	-1.11875577623
 Zr	-12.9883259395	-9.89245615246	-2.88216284922
 Cu	-8.78340033856	-10.9409443583	-2.31132050934
 Cu	-7.73456872966	-9.23719588726	-6.23021348463
 Cu	-5.56074481448	-13.0559654562	-4.06597295395
 Zr	-8.50435361521	-11.953578841	0.0714687780944
 Zr	-5.86227587262	-10.9272912434	-2.24362013956
 Cu	-3.59482109805	-11.3155376856	-0.923308335393
 Zr	-2.79001264546	-11.8380088413	-3.61913319513
 Zr	-4.20916200874	-13.9128027933	-1.63458325782
 Zr	1.44847705928	-8.95759738963	-2.1419874866
 Al	4.90396590967	-10.8495013645	-2.38776949981
 Al	0.0628476544215	-11.6165492322	-2.33625189892
 Cu	1.69885190648	-13.3961349982	-2.83074937046
 Cu	-0.428986095131	-10.599694201	-0.12672108341
 Cu	2.57657727221	-11.3881088154	-1.45146991563
 Zr	2.6196596064	-11.2944619875	-4.30162548738
 Cu	5.30658653278	-10.7864073426	-4.93582646932
 Cu	6.70148776848	-11.8917540979	-0.762626061204
 Cu	8.67875856355	-10.9278426517	0.410808266199
 Zr	9.69510270195	-12.6967205757	-1.52434158662
 Zr	7.53220642447	-11.6611093882	-3.57793164302
 Zr	6.74357508382	-9.11553300134	1.32305192
 Zr	7.86131109014	13.1099910312	-5.00854163127
 Cu	12.2748910192	-13.0281122146	-0.562292716086
 Zr	12.7810089826	-11.7520236563	-3.02443504759
 Zr	12.7813650729	-13.5945053437	-5.61782540175
 Zr	-13.5762259108	-12.0010195996	-0.585777201469
 Cu	-9.21535985688	-3.61302495353	-0.731290623544
 Cu	-11.6116270913	-6.76531589382	-6.74381693735
 Cu	-13.9555109166	-5.95946051406	-5.04089233358
 Zr	-10.2899096887	-8.6200658876	-2.28912783725
 Zr	-13.4010832301	-9.08378992342	0.0205648195676
 Zr	-12.8604675932	-6.84471025712	-1.91730737282
 Al	-4.79484079123	-4.42776628831	-1.74913725881
 Cu	-7.85104270758	-6.63544067186	-2.58653898208
 Cu	-7.62004283176	-9.02653612286	-3.45710820158
 Zr	-2.86254351239	-6.20748327886	-3.18454017102
 Zr	-10.2881451806	-5.38136853709	-2.66176684107
 Zr	-6.86840845121	-5.53007115905	-0.211840311788
 Zr	-5.28372869279	-7.69383012225	-2.19341273632
 Zr	-5.63500444149	-5.22244763344	-4.29805234588
 Al	-0.56520440583	-7.49341823854	-4.22970098498
 Cu	-3.98462901109	-6.52061041708	-5.93303922129
 Cu	-0.367049956856	-10.0016638689	-4.09505731273
 Cu	-1.7587726851	-8.43640011503	0.511716713049
 Zr	-3.49362461988	-6.40301417701	0.0803507074041
 Zr	-0.494491816947	-6.34305286066	-1.23359273558
 Zr	-1.94504246172	-9.1623453654	-2.01946698748
 Cu	0.595971852004	-8.40598262608	0.234190182709
 Cu	2.25358709486	-6.4257398732	-0.876168258792
 Zr	1.82659860744	-5.98627895554	-3.59422050355
 Zr	4.54220736284	-8.29027369014	-3.73718238317
 Al	8.33132982497	-7.91924313247	3.44745876358
 Cu	7.09507259454	-6.68838615171	-2.72372217976
 Cu	8.70001713298	-5.91097122698	-0.67250163319
 Cu	4.42426440014	-6.05048006845	-2.130860268
 Cu	6.32575790863	-6.86366065958	-0.24766315514
 Zr	7.36054925256	-9.2281284898	-1.61475514383
 Zr	7.4059610478	-8.79033340711	-4.62923489224
 Zr	8.80244461543	-4.2815827495	-2.89491358635
 Zr	4.10806639728	-8.47827110199	-0.574044586759
 Al	12.5800215798	-7.56283898403	-1.11270582876
 Cu	11.8593986035	-10.9897909273	-5.42551877191
 Cu	13.6829953016	-5.37791153415	-0.469968027903
 Zr	10.1115477156	-10.0838572911	-3.23511228317
 Zr	9.58123691038	-8.25571824469	0.464237629169
 Zr	10.0729636788	-7.21774222386	-2.54000698889
 Zr	12.8165142976	-8.58211414361	-4.01434408679
 Al	-10.7477538475	-2.58447252014	-2.54373940772
 Cu	-13.9068438469	0.766613603046	-2.10687814686
 Cu	-12.7924501299	-1.47098805619	-1.32097008351
 Zr	-13.5512893231	-4.02317017759	-2.76647731646
 Al	-7.68215615165	-3.96612810557	-2.6083281874
 Zr	-5.90350085477	-2.01401829442	-3.68988672084
 Zr	-9.00964270822	-2.24428204047	-5.11101919626
 Zr	-5.85067865846	0.618727010349	-1.14194148875
 Zr	-8.39708246759	-1.00500499145	-2.20007281098
 Al	0.953559698757	-1.8043668945	-2.67227880179
 Al	-3.12463862649	-3.39285272658	-3.55982973184
 Cu	-0.588594225741	-3.93518277071	-3.02842304682
 Cu	-2.35414928862	-4.19701379979	-1.29018029806
 Zr	-3.53855102933	-1.59400933248	-1.52709500518
 Zr	-0.656212888919	-2.25761718437	-0.340844815904
 Al	1.37294087828	-4.17347444609	-1.43548974419
 Cu	3.25811580128	-0.762867327788	-2.78656763401
 Zr	1.37967620654	0.221630756406	-0.513847733441
 Zr	-1.61233396491	-4.77839710055	-5.63841429668
 Zr	3.09823984855	-2.29801509813	-0.372316194955
 Zr	3.57563599713	-3.49850886162	-3.24200250947
 Cu	5.3717559449	-1.75562177536	-1.77312441058
 Cu	8.75567884953	-3.60237168316	-0.0124010018551
 Zr	6.31478260678	-4.23991522655	-1.35323272432
 Zr	8.20042014479	-1.31985757316	-1.42078123757
 Zr	11.4078098431	-4.20447835818	-1.4710382453
 Zr	8.79557414672	-0.216110294166	-4.15645171672
 Zr	6.05302525836	-2.26013180725	0.992573845254
 Cu	10.4383350378	-2.04604002166	-2.99773290125
 Cu	10.8985664538	-1.68315934726	-0.363053398484
 Cu	11.2123947538	-6.07287612249	0.416267548055
 Cu	12.8062731408	-5.98387907155	-3.02945372867
 Zr	12.983233948	0.66650995546	0.205944410305
 Zr	12.9708523772	-1.46855110695	-2.43196075754
 Al	13.9745160748	6.95290633559	-3.92700451165
 Al	-13.0325435146	2.76834432726	-3.22195859678
 Cu	-11.1013719434	3.75728540984	-2.11677824918
 Zr	-11.1586358316	0.651135242051	-2.29113700529
 Zr	-13.5439849273	5.24317854295	-1.47880362301
 Al	-4.89147504474	4.08642742304	-3.13277705565
 Al	-7.15816716291	0.306852825293	-4.93706850574
 Al	-8.28045554286	1.72718310039	-2.84607055607
 Cu	-5.82200512221	1.80569910449	-3.4847041299
 Cu	-6.82397949955	3.2255145277	-1.40905950859
 Zr	-5.00000522448	4.77615493344	-0.168699785625
 Cu	-2.82799659651	4.56551202672	-1.88206086006
 Cu	-4.3130411681	2.29260612934	0.608317368301
 Cu	-3.63300495759	2.19105647384	-1.96682372183
 Zr	-1.83029906917	3.09083919123	-3.98145343654
 Zr	-1.49409826454	3.10723334959	-0.0827688069768
 Cu	1.53559515413	1.03169641808	-3.30628135683
 Cu	0.875866093106	3.48733073687	-4.23800500236
 Zr	1.56069146363	3.28713525517	-1.38349745232
 Zr	3.69908484977	3.13130602103	-3.64359853159
 Zr	-1.06310329718	0.55588555198	-2.21547389753
 Cu	5.10567931788	0.176567902286	-0.226895953104
 Cu	7.82988771597	2.23966203765	-4.6934786469
 Cu	3.54977568714	1.35576919373	-1.70304220176
 Zr	8.24109728317	1.98509512122	-1.59459163892
 Zr	5.973258061	0.660713197337	-2.93829232409
 Zr	6.59236281186	4.11955228838	-3.05197957347
 Al	12.8553701009	2.976192578	-1.69711133425
 Cu	10.3730878863	7.29437336029	-0.854605187939
 Cu	12.0788176075	5.9667427659	-2.47183148068
 Zr	11.0223898081	0.768091596073	-2.28318356387
 Zr	10.1833269008	3.63942243168	-3.12981104236
 Zr	12.9240163017	4.19200764745	-4.37800660335
 Zr	10.5820910533	3.03437005815	0.281639912918
 Cu	-12.6097731956	7.70417846658	-2.16420150612
 Cu	-12.367137563	5.11940579146	-4.03312747316
 Zr	-10.2098166023	6.46090092228	-2.01490429148
 Zr	-11.2845802968	7.58716185616	-4.67625549625
 Cu	-8.76441831621	4.1081484453	-2.49770324271
 Cu	-3.1195451453	5.62769027501	-4.0358952133
 Cu	-9.12551822214	8.05374041676	0.172980424251
 Zr	-6.91638590959	6.0546490899	-2.94777321583
 Zr	-5.05596721807	8.59152118774	-3.81036925325
 Zr	-5.95941068162	7.81150720723	-0.195709323378
 Zr	-8.18334612548	8.83030416956	-2.18296027821
 Cu	0.695723614396	8.11593844905	-2.45380554454
 Cu	-4.2793520475	6.5605156036	-2.1386378456
 Zr	-0.807215172945	5.82817219669	-5.39171356047
 Zr	-0.354597938275	5.46961835387	-2.36066265328
 Zr	-1.88294650094	8.09126199175	-3.13598181735
 Cu	4.07131816068	4.96119872567	-1.782772101
 Cu	2.98478981993	8.710004192	-2.58631883604
 Zr	1.6407843046	9.77701094491	-0.21914826477
 Zr	4.58365531243	8.0303378997	0.0491940779173
 Zr	2.26686115534	5.84974790982	-3.95192417574
 Cu	4.97169795257	5.32113323204	-4.93677814878
 Cu	6.66570511909	9.4913572043	-1.82376846626
 Cu	9.2787326085	7.56981597473	-5.36514870047
 Zr	5.28804729579	7.17448680913	-2.7831651634
 Zr	6.50490653185	5.56589483323	-0.409032513537
 Zr	8.34158737472	6.98401081493	-2.76841374229
 Al	10.675630866	9.63301160698	0.0165712929382
 Cu	10.6322702296	5.92820936169	-4.38282302973
 Zr	-13.8084736463	9.7559791824	-3.39712095943
 Zr	13.1865759837	8.09871498517	-0.995476117902
 Zr	11.2275522689	8.56390509258	-3.39327843146
 Cu	-11.1750196628	12.5672655978	-0.809252972326
 Cu	-12.1857302878	11.9120733423	-2.91119611964
 Cu	-9.65763433847	9.93539778793	-4.35405351144
 Cu	-10.9180215164	9.4750875536	-2.39703541938
 Zr	-12.6387994437	10.2296631794	-0.503855115077
 Zr	-11.8740568991	10.5120661092	-5.69830604734
 Al	-6.29339476726	12.6272562434	-1.14633118332
 Cu	-8.28136656698	14.0764358246	-4.17513843478
 Cu	-5.95127173536	10.3765879815	-1.99237436713
 Cu	-7.2669265975	10.0488030131	-4.56475865921
 Cu	-7.2603845054	-13.5201316236	-2.10790628057
 Zr	-5.91806474222	12.4065757272	-4.06748616075
 Al	-2.19300623575	12.7571006038	-0.121357371335
 Cu	-1.41102918067	12.7634539494	-5.07603227172
 Cu	-3.45051896178	13.7507989556	-4.15757174047
 Zr	-3.25543628027	11.4089007088	-2.5898852201
 Zr	-0.0960125717842	10.7625099098	-3.08664118996
 Zr	-1.02741878154	13.8268400602	-2.57534458252
 Al	0.981096835069	13.0836985951	-4.47220439932
 Al	2.15699220715	12.5677618003	-2.06605431501
 Cu	0.194733409819	12.1788027095	-0.607625754254
 Zr	5.62646255483	12.2569692456	-3.28894886909
 Zr	1.04085885893	-13.4097768426	-0.139864543071
 Zr	4.33614096676	-13.7301468812	-1.36477827643
 Zr	4.27169945032	10.7975596549	-1.29803792915
 Cu	7.13316169217	-13.9503207057	-2.20135792796
 Cu	9.13686659709	9.57903182134	-1.78556091621