10000
56.56856 56.56856 56.56856 LAMMPS data file from restart file: timestep = 451, procs = 1
 Al	-26.0571607944	-26.9205765418	-25.0730029381
 Al	-23.6273436281	-27.6825809685	-26.1148073429
 Cu	-24.5520269571	-25.3890038454	-26.4313526265
 Cu	-26.9954693968	-25.337154339	-26.7362269628
 Al	-20.0151800767	-26.422776442	-26.0183205951
 Zr	-22.1078113962	-24.3704801191	-26.8170268541
 Zr	-23.5434880406	-25.6933823776	-23.7962537566
 Zr	-20.5578301506	-24.9104128888	-23.6535755829
 Cu	-19.174005634	-24.3406035216	-27.2003451837
 Cu	-15.8668841107	-26.2713885831	-24.1514302223
 Zr	-17.2759510571	-26.6382859436	-26.4767869149
 Zr	-17.5225611305	-24.1409839932	-24.8387244549
 Zr	-16.3753623394	-23.525009013	-27.668748839
 Al	-11.5539777799	-24.5048900386	-27.1134937863
 Zr	-14.2735493924	-25.1040435204	-26.2198763789
 Zr	-13.2247901938	-27.300350261	-24.3018604499
 Cu	-7.74110667983	-25.1968964748	-25.0220020319
 Cu	-9.79595851532	-26.0312696537	-28.0615412287
 Cu	-7.5638885806	-27.4361404485	-26.0948007497
 Cu	-7.23863080765	-25.4189402497	-27.4117234063
 Zr	-9.77503836528	-23.2897218944	-25.2226654146
 Zr	-10.2505157352	-26.684645657	-25.5239606826
 Cu	-5.38192684359	-23.8914587744	-25.5019862753
 Cu	-3.79653377375	-24.9502741186	-27.4113812219
 Zr	-5.20822270719	-27.5976425592	-28.1045363797
 Zr	-5.0018886651	-26.4688454204	-25.2447605659
 Zr	1.82786967511	-25.0640684629	-27.508115808
 Zr	-1.41098509682	-25.6345424139	-25.8662472411
 Zr	1.41020023126	-25.6327874179	-24.3777248177
 Zr	0.413974694373	-27.7991746528	-27.2902151655
 Zr	3.71126318466	28.0990088378	-27.6428809125
 Zr	4.80085823371	-25.2503052025	27.5459237355
 Zr	4.29968853002	-25.9621925764	-25.8682345869
 Al	8.88444278743	-26.6636751152	-27.3564880684
 Al	7.90187653667	-24.3192600805	27.9713247438
 Cu	8.69606534019	-24.282627354	-26.258011636
 Cu	8.72919008839	28.124252465	-25.4406341465
 Cu	7.18867099838	-26.0720641327	-25.3194974304
 Zr	10.7659117725	-23.1267117594	-27.6663659404
 Al	12.5586434604	-24.5819093181	-25.8652638422
 Al	10.9170237791	28.0899547122	-26.4440783787
 Zr	10.2827272483	-26.0130345504	-25.0211435939
 Zr	14.1570603587	-23.8911038514	-28.1820869507
 Zr	13.4464735882	-27.6285048181	-25.4649190546
 Al	17.879329293	-27.7479439531	-28.1088409778
 Cu	19.4822318115	-26.3227843828	-26.4021035887
 Zr	17.3580306645	-24.9429868617	-27.7769698388
 Zr	15.0218673523	-26.9192363215	-27.9168519798
 Zr	18.0212406245	-24.5511311085	-24.2745410566
 Zr	15.2513090893	-24.8413181969	-25.3881892705
 Zr	22.3673616138	-26.1517767784	26.6387018767
 Zr	21.7685827611	-27.1531638741	-24.3056372048
 Cu	22.2200322088	27.4604352425	-26.1743876203
 Cu	26.1401029773	27.2841096508	-27.8484079321
 Cu	28.2473311648	-25.3992685587	-24.3971297322
 Zr	27.8009530764	-27.5929436259	-26.1394547023
 Zr	24.7123406845	-28.1235173082	-25.7078614106
 Zr	22.5527796579	-26.1443791646	-26.936218593
 Al	-26.0090054317	-24.1557710187	-24.722646241
 Cu	-25.9643675003	-20.0082185317	-26.8311230994
 Zr	-25.5792889401	-22.9233549942	-27.3684937695
 Cu	-21.0050041665	-21.7112282168	-27.7363255906
 Cu	-23.7756558686	-23.1727390647	-25.0166844883
 Zr	-20.7460747613	-19.3945762579	-25.8395083168
 Cu	-17.8855251251	-19.1241593199	-26.2590973021
 Zr	-18.7483295406	-21.8049850734	-26.3404071546
 Zr	-15.7804573926	-21.3011420159	-25.5048209875
 Al	-13.2887738301	-19.414557838	-26.3173159833
 Zr	-12.9524280237	-22.3383236341	-25.6714862467
 Zr	-10.6468516318	-20.483964611	-26.4259525975
 Cu	-6.17880432553	-23.0587677105	-27.8547559392
 Cu	-7.2414370593	-22.5366956718	-24.4808307781
 Zr	-7.71010858354	-20.7936277898	-26.6317021248
 Zr	-8.94376043703	-23.195754573	-28.1414724665
 Al	-1.74191942796	-20.1270332965	-26.8927164702
 Cu	-5.19521755778	-21.5810271799	-26.0926094089
 Cu	-5.75927412599	-25.2285998833	27.2029882691
 Zr	-2.70295387442	-22.739856862	-25.8468631757
 Al	0.219351797164	-22.9186921045	-26.2148574075
 Cu	-0.708929513022	-23.6335577094	-24.0836062098
 Zr	-1.23065894963	-23.9604973209	28.0492447179
 Zr	2.99220412102	-22.9945438238	-25.5582061033
 Zr	-0.366392985339	-20.7731685047	-24.1156450386
 Zr	1.42571237451	-20.1338526033	-26.7960123031
 Al	3.73612064368	-18.3918873999	-25.6920249684
 Cu	4.17791794685	-20.7099132306	-26.3526535305
 Zr	5.96195804188	-23.4189435086	-26.4790525474
 Al	8.32529951599	-21.9212650666	-25.736291059
 Cu	8.33918838629	-21.8603821577	-28.2369762152
 Cu	5.33973419322	-22.1348132795	-23.9000740185
 Zr	8.89874230778	-19.4074087596	-26.6440618593
 Zr	6.22484917502	-19.8066779708	-24.7347708879
 Al	11.4817204618	-20.0104014473	-24.8380651276
 Cu	11.5173722295	-20.1494466925	-27.3594477753
 Zr	13.4660762759	-21.6505419069	-26.2554375969
 Cu	17.4321013476	-19.581379959	-25.7793461411
 Cu	19.2820713881	-23.2181863548	-26.4236638859
 Cu	18.3020319104	-21.4940873148	-24.7319867036
 Zr	14.9325668514	-19.419418714	-24.7903868719
 Zr	16.5357944439	-22.1235666596	-26.7926346398
 Al	22.5036971226	-20.844913836	-25.2441250701
 Cu	19.311541528	-20.7829697142	-26.9238640896
 Cu	20.6508989552	-24.7771340657	-25.0712871257
 Cu	20.4395546834	-24.731543343	-28.1791414637
 Cu	22.3254286111	-19.5921252483	27.5037173467
 Zr	21.646510918	-22.1730124063	-27.6942588347
 Zr	28.1252135967	-23.2069310229	-25.9611585783
 Zr	28.1139041137	-20.5035652499	-25.3938876611
 Zr	26.7395383005	-19.5684768874	-28.067321564
 Zr	25.9760635007	-23.6518424245	-23.6069512329
 Zr	23.0606306159	-23.6861453599	-25.0027367363
 Zr	25.6490870445	-25.1762171793	-26.1032618273
 Zr	25.2125142819	-21.7749753524	-26.0310559818
 Al	-28.0961295437	-14.8687343255	-25.9435983872
 Cu	-24.8567955852	-16.2261496248	-26.4648934667
 Zr	-27.047944882	-18.9020926207	-23.0672559632
 Zr	-27.203512425	-17.8004363587	-26.0962005071
 Al	-21.6562941233	-17.0497257169	-24.489040445
 Cu	-22.5865523454	-17.4376470357	-26.7461200666
 Cu	-24.3892041724	-18.8432519128	-22.0548395002
 Cu	-19.4645637313	-17.200676737	-26.696175893
 Zr	-24.264981434	-18.472406115	-24.8184567177
 Zr	-23.3607816838	-20.7824105043	-26.7159613438
 Al	-17.2831982285	-16.9354152652	-25.2691984862
 Cu	-18.9937026366	-15.4391480854	-22.2665674685
 Cu	-15.0634173582	-16.5056909228	-26.3625374622
 Zr	-15.2548758977	-15.2888380128	-23.8442970254
 Zr	-12.1628834548	-19.6851299905	-23.7932764287
 Zr	-12.6482899692	-16.7488803766	-25.0719145412
 Cu	-10.5460465605	-18.0010221772	-27.7294829199
 Cu	-7.11198857009	-18.2610448377	-25.5858767991
 Zr	-9.87680469265	-17.7197777619	-25.1065900783
 Zr	-7.72444021769	-18.1006899997	-28.1657797898
 Al	-5.58853577297	-16.632630392	-26.7537918322
 Cu	-6.35142036283	-20.0969111533	-24.1147365665
 Zr	-4.94901114902	-17.5378557667	-23.9891737084
 Zr	-2.76526144432	-17.4250253598	-26.4507434286
 Zr	-4.90890430525	-19.3069222193	-27.5220050092
 Al	-0.221361518991	-17.5980804082	-27.7496915164
 Cu	-0.464524624501	-18.501157357	-25.4362302341
 Zr	-3.45607885023	-19.9699574278	-24.6540649311
 Zr	-1.27040408757	-14.7124312327	-27.6347077078
 Zr	-3.46169053323	-14.9527587289	-25.2226935731
 Cu	1.63630932346	-17.2636926873	-26.2818626788
 Cu	3.72811723935	-16.6185401261	-27.3988084282
 Cu	3.44537033915	-15.9784791735	-25.0176493348
 Zr	4.46980883361	-17.6247900736	-23.0257955697
 Zr	5.96928739533	-15.2494572711	-26.0991627295
 Cu	7.22063797187	-17.3686799732	-24.6845113567
 Cu	10.1217064834	-18.5298959671	-21.6598618272
 Zr	8.27812908555	-16.5735127615	-27.2316391578
 Zr	8.79062889415	-14.7395549575	-24.541547878
 Al	14.9446863101	-16.5710916495	-24.071157372
 Al	14.8277704159	-17.0596917681	27.9250457698
 Cu	12.8520797456	-15.6835965786	-24.700444601
 Zr	12.9466053234	-17.8842874984	-26.4251514554
 Zr	9.92722344303	-17.5438867009	-24.350221607
 Cu	19.0989975424	-16.2524568285	-25.2021859791
 Cu	19.0639285691	-18.0194691744	-26.8136905583
 Cu	15.0311983999	-19.384246118	-27.555018224
 Zr	16.4572073569	-17.0747116858	-26.3560686743
 Zr	17.5292082654	-17.8672779106	-23.4830933053
 Zr	17.6267485145	-16.6109840443	27.4218361344
 Al	20.1446151128	-18.306266213	27.5913447178
 Cu	20.0343035042	-15.8049024381	-27.7446476077
 Cu	21.297211485	-19.2887627998	-26.9063281787
 Zr	22.4980985814	-16.734511145	27.5924720715
 Al	24.5425852543	-16.5387561081	-24.6744590495
 Al	25.3196242673	-17.0559263808	27.4230509182
 Cu	24.2460825091	-15.8207055605	-27.0810290286
 Zr	23.9762579539	-18.7242440843	-26.9692797262
 Zr	26.7171623298	-16.8553337928	-26.7288518693
 Al	-25.5664094237	-13.7373429647	-26.2394277803
 Cu	-27.2455663432	-8.8485979401	-26.1175507033
 Cu	-27.2601369343	-13.0847293185	-24.4491041366
 Cu	-25.3711380509	-11.692475048	-27.7115481765
 Zr	-28.0228653507	-12.1919188516	-27.0946019803
 Al	-20.7796095476	-12.6656528919	-25.023411236
 Cu	-21.2379538992	-15.4503643067	-27.4756852072
 Zr	-22.9000790944	-14.7212258604	-25.4089404424
 Zr	-23.1590232598	-11.8822563518	-26.2261670075
 Zr	-21.3610373495	-13.9818044082	-22.68711763
 Al	-18.997247834	-14.6621994781	-28.2486061335
 Cu	-18.7188172975	-12.5243313472	-26.2354264145
 Zr	-19.555104723	-15.1009426068	-25.202737378
 Zr	-16.645896911	-14.303254261	-26.6484473877
 Zr	-17.7639650343	-11.7253849542	28.043179939
 Zr	-17.6957410546	-13.3089460261	-23.8109459511
 Zr	-20.9142618035	-12.548465294	-28.1453270592
 Al	-14.3952895832	-12.5788158223	-24.4437744267
 Cu	-12.756488682	-14.2510324325	-23.0725383077
 Cu	-15.5663594572	-11.8966360959	-26.4786554266
 Zr	-13.5379587768	-14.1623346006	-26.6707258429
 Al	-10.1294240517	-10.7516135239	-27.3166392522
 Cu	-6.67633663644	-15.8581181277	-22.4337538146
 Cu	-11.2076449678	-12.9579096668	-27.2650247646
 Cu	-11.0500109465	-15.5732822364	-27.2194211688
 Zr	-8.32777480336	-15.4926416219	-26.5774680809
 Zr	-9.11361246342	-13.4160716508	27.752279562
 Zr	-10.7511401576	-14.1714703297	-24.9452863468
 Zr	-8.34184149509	-12.3762817533	-25.9037039948
 Zr	-6.11842357106	-12.0406613858	27.8977405765
 Al	-6.32506069985	-14.9478821846	-24.6494514826
 Cu	-3.42741033571	-12.7287445476	-23.2969915339
 Cu	-5.97357331128	-14.2593084078	-27.1712362548
 Cu	-3.66676538169	-13.2446664226	-27.4086380418
 Zr	-5.39921221437	-12.405585348	-25.2292979023
 Zr	-3.77025181274	-10.4364117941	-27.1875720597
 Al	-2.36024954963	-12.3174197058	-25.4115420111
 Cu	-0.0765775643493	-13.4143767756	-25.6302490924
 Zr	1.98478499929	-11.9203185761	-26.5061894824
 Zr	-0.957548040166	-11.5063019849	-27.6137742078
 Al	3.90901087455	-13.4873870728	-25.2947507332
 Al	1.79381994132	-14.8448736692	-26.8411398448
 Cu	4.51196437314	-10.8212864011	-24.9119222907
 Cu	4.15268324086	-14.6918149149	-22.8905797911
 Zr	6.19541578919	-12.7118432295	-23.829069658
 Zr	6.02579173496	-12.0262593459	-26.8993912002
 Zr	1.60284586172	-14.47861861	-23.716742703
 Cu	7.89069871163	-10.0732332475	-26.0536982941
 Cu	8.79898871325	-11.9259161977	-24.6112043446
 Zr	11.7982023801	-12.9198067258	-28.1748264858
 Zr	11.4288459931	-13.0205688217	-24.8910890449
 Cu	13.6371794815	-12.0516730085	-26.3377882517
 Zr	13.2240327777	-10.215739774	-24.5248507153
 Zr	14.2874856577	-13.4027283146	-23.7558109509
 Cu	15.9997176292	-12.6390648457	-26.0033134252
 Zr	16.9684649692	-11.7108548442	27.9800217073
 Zr	17.8125615588	-14.3672777491	-26.9056824368
 Zr	14.2944442424	-14.7470377399	-26.8151668221
 Zr	18.8256232808	-11.3634406176	-25.9368013236
 Zr	19.8695539101	-13.1936853604	27.7704548941
 Zr	20.5254535865	-13.7893166251	-25.2996674488
 Cu	19.6359574386	-10.5143319369	27.9640047078
 Zr	22.294368995	-11.1815229867	-23.8079702158
 Zr	21.9164695938	-10.9239111405	-26.9597641555
 Zr	22.4672581045	-13.9005277908	-27.7309374911
 Zr	21.808020859	-16.6338355097	-25.8925605766
 Cu	26.0584833005	-14.2421846952	-26.5669061792
 Cu	25.0797710548	-11.0470994817	-23.8957643852
 Zr	26.533843709	-13.6204751656	-23.9721623165
 Zr	25.2072037809	-11.8060341758	-26.8816502498
 Zr	23.6808304454	-13.7966475859	-24.9503156545
 Cu	-25.7397944107	-6.978134294	-25.3236656172
 Cu	-25.626002721	-7.15539437631	-27.7513046888
 Zr	-24.1162590456	-9.10301182245	-26.8539060882
 Zr	-23.7577129232	-8.12271450364	-23.8105431958
 Zr	26.9612526353	-9.42836764875	-27.6774664569
 Al	-21.5637746467	-7.31566075715	-28.1884892375
 Cu	-20.2836855736	-10.4743129796	-25.9597476929
 Cu	-21.6378246682	-8.38605138951	-25.7028439116
 Cu	-21.7364824371	-9.8143417869	-27.9470454583
 Al	-16.2297446346	-8.2679801505	-23.3964743463
 Al	-19.1570558035	-10.8381209024	-23.7194237574
 Al	-17.4321945075	-10.360243324	-25.8586414843
 Zr	-19.1205550896	-9.0707934118	-27.9502120369
 Zr	-18.6911293036	-5.96651661029	-28.1275885327
 Zr	-11.5835729997	-11.215984315	-24.6308602278
 Zr	-14.0069017452	-7.87609161115	-28.2270860347
 Zr	-14.4625516836	-9.49835689424	-25.3060862908
 Zr	-13.0357013607	-10.917565523	-27.3838027753
 Zr	-11.5558087178	-8.2247334867	-26.1692251356
 Al	-8.94948190548	-9.52505602761	-24.92871788
 Zr	-10.5619105728	-6.32365295942	27.9736936895
 Zr	-8.69064394268	-8.31518038807	-27.6143481148
 Zr	-6.48565821233	-9.69560872806	-26.3241829736
 Cu	-4.20080067246	-8.12473383637	-25.542608681
 Zr	-4.33541566401	-7.423008063	-28.0292001244
 Zr	-4.99884291552	-4.46948408742	-27.707606547
 Al	-1.81365661289	-9.28889884415	-25.5431732801
 Cu	1.57923512148	-7.84575288455	-28.218785476
 Cu	0.584954237874	-9.36340319639	-26.4266976733
 Cu	-2.21197365172	-6.80160732109	-25.7240049331
 Zr	0.0565388816182	-7.88124340918	-24.0100381478
 Zr	-1.40917446281	-8.38923257471	28.2226477158
 Zr	-0.164383133218	-11.1255547163	-23.8922786245
 Cu	2.23479758383	-9.90725937133	-24.5786481885
 Zr	7.26811956782	-9.94285802281	-23.2858246267
 Zr	5.84923785509	-8.33474321459	-25.5105368466
 Zr	2.69676399443	-7.55644276443	-25.7262070293
 Zr	3.78757826969	-9.77609807075	-27.3395783795
 Zr	4.26053479755	-8.89161651319	-22.8494779812
 Al	6.46103677721	-9.34940132478	28.2535975908
 Cu	8.53145216321	-7.87653481378	-24.7659783016
 Al	14.6485836195	-7.59227850485	-24.8502722475
 Cu	10.9210715238	-10.3073627538	27.5441055329
 Zr	14.0322029647	-10.7225288717	27.8886252988
 Zr	12.7383578474	-8.45011618284	-27.0841240749
 Zr	10.59617518	-10.4957385787	-26.3964368546
 Cu	20.1837643141	-8.78960879768	-26.4811685348
 Zr	16.9058836893	-6.28691945051	-26.4032741551
 Zr	15.7471485411	-9.91300434382	-26.0663282059
 Cu	21.9487394786	-8.62072325889	-24.8313636118
 Zr	20.0678374943	-5.99585412951	-27.0769116581
 Zr	22.6350618205	-5.96852442103	-25.2525639277
 Zr	24.3779411843	-9.17610829486	-25.771199866
 Al	23.9179580092	-9.26742719619	27.9472421939
 Zr	27.5949659494	-10.7167698611	-24.7422171192
 Zr	25.2308118565	-6.53102374273	-27.490335874
 Zr	26.8340684254	-7.74441832275	-24.9814793625
 Cu	-22.8835013228	-3.9717602058	-26.6810949595
 Cu	-27.8136369497	-2.61373999347	-25.034185537
 Cu	-25.6001619947	-6.1536813581	-22.8922719503
 Zr	-25.8016133735	-4.37781520364	-26.5483777145
 Zr	-25.8505894408	-3.27365299709	-23.4719221487
 Zr	-27.8507875543	-5.50882231466	-24.4095714
 Al	-21.0716996775	-3.30199591201	-23.9105980924
 Cu	-23.462064671	-6.51667568599	-26.3553158703
 Zr	-20.8749930551	-5.68061693354	-25.9472390292
 Zr	-21.1294114974	-4.25893975074	27.5589227186
 Zr	-18.9905714758	-8.07828729753	-24.7208062497
 Zr	-23.3695647274	-5.02697403211	-24.0462529706
 Cu	-18.339571417	-4.38552829563	-25.9484899002
 Cu	-18.9198245594	-4.91798083047	25.813550774
 Zr	-15.8715990201	-4.58080437798	-26.9981634902
 Cu	-11.5408101257	-6.20889749684	-23.6393096315
 Cu	-13.3101267504	-3.1108040528	-26.3991276959
 Cu	-12.550550809	-4.06392986487	-23.8406428966
 Zr	-16.5988869711	-7.56494964016	-26.4884352435
 Zr	-11.2091449727	-4.76750171984	-26.1283777675
 Zr	-15.1402278634	-2.96070136448	-24.2895808384
 Zr	-13.2943634785	-5.13259665984	27.9463827983
 Zr	-13.8578833821	-6.26286674209	-25.4026919307
 Al	-6.58368958374	-6.6537531054	-26.33355293
 Cu	-9.2998347929	-2.73474697216	-26.5365547301
 Cu	-8.60246117317	-5.31074352724	-27.005528117
 Zr	-9.05716620609	-6.66583964726	-24.7008577254
 Zr	-9.69346124131	-3.49895956683	-23.750493488
 Zr	-7.15505086467	-3.1399882925	-21.7844501549
 Zr	-4.33384826127	-1.70173363643	-26.7701068272
 Zr	-6.84816859777	-3.73940511312	-25.4174060729
 Zr	-2.22947176382	-3.93980295851	-25.785265547
 Cu	-0.731833105567	-5.25283234577	-23.8078988233
 Zr	2.89703556678	-4.60724952995	-26.9121891414
 Zr	0.115519063712	-3.53004060591	28.1586699869
 Zr	0.189032645095	-6.0254670194	-26.6050044253
 Al	5.62272229063	-3.98502091661	-26.1394840732
 Cu	1.67476075557	-5.17238067174	-24.2128748896
 Cu	3.56675901419	-3.14582863829	-24.3269676873
 Zr	5.35714358053	-3.83288251695	27.6304293184
 Zr	4.32647657556	-5.79822309895	-24.1903330901
 Zr	4.89523367168	-6.73736183035	-27.8822469221
 Cu	10.4381190393	-2.65057973468	-23.9806150343
 Cu	7.07431204713	-5.8225980692	-25.3126832453
 Cu	9.32569752582	-5.49154455302	-26.2686407872
 Zr	9.21639741146	-5.11159692747	-23.4528275449
 Zr	6.42755267863	-3.84373265421	-23.30736037
 Zr	9.18512708618	-7.99557383504	-27.6876295405
 Al	11.4552975943	-4.43759969632	-25.3365835519
 Cu	13.7083210761	-3.08357703465	-25.6300326772
 Zr	13.9133239444	-5.56769363499	-26.7057086231
 Cu	18.417333627	-2.91697949056	-23.0657828373
 Cu	17.8872219449	-2.68209266923	-25.7268047175
 Al	23.4124017244	-5.5661025032	-22.4658480497
 Zr	18.3750758273	-3.67416144684	28.2298512815
 Zr	23.8811902775	-3.15751005787	-26.5959018441
 Zr	20.8409089098	-3.26188650009	-25.7587532002
 Zr	22.736156277	-5.19456880464	27.8930242882
 Cu	28.2379825949	-4.35709761251	27.5962159794
 Zr	25.4217816853	-5.08293879628	-24.4553953552
 Zr	-28.2383915163	-6.61389394602	-27.4019351606
 Zr	27.1108651773	-3.92994890388	-26.5108078999
 Al	-26.0168030194	0.186809031302	-24.2455164054
 Cu	-25.832407925	-1.45378811591	-26.1007155464
 Zr	28.1106679881	-0.338459524339	-26.2365178993
 Zr	-23.8898517462	1.02940847366	-25.7082522349
 Cu	-21.9131829268	-0.465092696215	-26.7852886587
 Zr	-21.3742284792	-0.989177393028	27.1707186137
 Zr	-21.7726872518	2.70142751537	-23.5706255988
 Zr	-20.6982217342	-0.286473198466	-24.2387602842
 Zr	-23.4407862799	-1.92320738366	-24.9116631997
 Zr	-21.6085514539	2.36055596985	-27.1496239234
 Zr	-20.2982609962	-2.58109061955	-26.5339713333
 Al	-17.2781405862	-2.10672396592	-26.3068687153
 Cu	-16.6802164197	-0.581890196796	28.2564830177
 Cu	-16.6580828022	1.52824287243	-26.8632854466
 Zr	-19.1250001454	0.21775586411	-27.3147533004
 Zr	-18.155184925	-2.90556609752	27.7205101662
 Al	-14.6222726567	-0.0979397892879	-23.3837339207
 Zr	-14.8479892448	-0.515529177045	-26.2084809809
 Zr	-13.8240499904	2.47943720035	-27.2167986436
 Zr	-12.1809349434	-1.57095688756	-24.2522943617
 Zr	-12.1272898191	-0.552623593997	-27.5143534008
 Al	-5.05800253102	1.78833173137	-26.1590725586
 Zr	-7.01236369178	-0.697643210365	-26.3111914778
 Zr	-7.95509258633	2.10709161973	-26.3032564455
 Zr	-9.91212836976	-0.42835364619	-25.3867335277
 Al	-3.25013781351	0.536681756795	-27.9758607025
 Cu	-2.62577907104	-1.33194100489	-24.7885998679
 Cu	-1.78983150706	-1.09887361705	27.3185283884
 Zr	-4.448627698	-3.11524686004	-23.4909620426
 Zr	-6.40847067294	1.46396540026	27.7683737736
 Zr	-0.480211722586	1.33528454723	-26.9858110351
 Al	1.78042408555	-0.268998142802	-26.4519994084
 Cu	-1.26579563507	-1.40574536868	-26.869103504
 Cu	0.67289683965	-0.849721894929	27.9992610027
 Zr	2.97157474719	-0.391097113457	-23.8359114985
 Zr	0.837203754571	-2.87765120355	-25.5058386633
 Al	3.28291805295	-0.380832986719	27.8908310258
 Al	3.72324239061	-2.01089543287	-26.5454124082
 Zr	4.61741493217	0.80038648889	-26.2556208179
 Zr	6.24551337634	-1.2602099587	-27.7130937088
 Al	9.05551751244	-0.742222088881	-27.6149022086
 Cu	10.079568814	-0.518641460088	-25.011930573
 Cu	10.1879214984	1.29195716775	-26.654563017
 Zr	7.67266832253	0.50101498991	-25.3953976978
 Zr	8.2974633126	-2.9205060337	-25.7804725196
 Al	12.2628752642	0.668978929989	-27.8878930465
 Cu	14.082916489	-1.14393691283	-27.145895053
 Zr	12.9709797993	-2.60476998661	-23.107945735
 Zr	11.4136719432	-2.0742583023	-26.7992933921
 Zr	14.8707217787	1.61348357827	-26.8609009516
 Zr	12.745638508	0.412033265459	-24.9369857392
 Cu	15.6914308583	1.6752465988	27.0224779801
 Cu	18.1269457714	1.32615419914	-23.158438666
 Cu	19.5845180151	1.18983300953	-26.8832390044
 Zr	19.3599659299	-0.596685626838	-24.6047803262
 Zr	15.7060931873	-1.04986900379	-24.7568735936
 Al	22.5466722066	-1.1551133699	-24.4567350515
 Cu	19.4339324214	3.71723621945	-26.9533673164
 Zr	21.6167994367	1.64384393955	-25.038804963
 Zr	21.9860849891	-0.512067962347	-27.1158680615
 Cu	26.3456316285	-1.846730026	-27.9699766799
 Zr	24.9155376616	0.235042533096	-27.1675310704
 Zr	25.6803565427	-1.73495896334	-24.530570485
 Al	28.0019579747	6.64110763406	-28.0448930777
 Cu	-24.244655622	6.92872474564	-25.8192784648
 Cu	-27.5910667307	1.97308031824	-23.3417559667
 Zr	-24.9907346806	2.90311220004	-23.2961568315
 Zr	-26.8096074822	2.48213228487	-26.0894408794
 Zr	-23.8068368854	4.14085516617	-25.8111610337
 Zr	-27.3751482203	4.00153550665	-21.2191801035
 Zr	-26.4716261554	5.59245148428	-26.5941295377
 Cu	-19.7111449293	2.02076971316	-25.2726479572
 Cu	-25.4374638846	5.73923539125	-23.9008196309
 Zr	-22.5346890099	5.64840069238	-23.544821505
 Zr	-20.1206974656	4.84297644863	-25.6621075508
 Al	-17.5730353195	3.07433736952	-25.1168466736
 Cu	-18.9140731436	3.06059123126	-27.6833901576
 Cu	-17.4922912513	5.60370071506	-25.3684422079
 Cu	-15.1975572285	1.9160540182	-24.8355177587
 Zr	-16.4416265754	4.20491498349	-27.5609033601
 Zr	-15.2563010092	4.58382653593	-24.1856814285
 Al	-12.6348604988	1.06388920724	-24.9687285322
 Zr	-13.7801544109	5.62321762781	-26.7401854004
 Zr	-10.7274373752	2.4892060248	-26.7776177374
 Zr	-11.4054485868	4.93542098831	27.9081426788
 Zr	-12.3715991318	3.79603680289	-24.4802687512
 Cu	-5.10257528105	6.29467309891	-25.7294977429
 Cu	-6.32463378351	4.10241555385	-25.6242488067
 Zr	-10.4290145476	5.68842525508	-25.8790117356
 Zr	-8.18978835741	4.72299210512	-27.9380052366
 Cu	-2.76289719162	2.83282527874	-27.3844542508
 Zr	-2.98990460835	6.65746443806	-27.144296025
 Al	-0.834730478978	4.22276843471	-26.5742617538
 Cu	-2.7737888646	1.13452997021	-25.2137683029
 Cu	-1.28797984057	5.89326696579	-24.8416239636
 Zr	2.12309694234	4.53781129935	-26.5019962941
 Cu	2.53855971438	1.91741592743	-27.6732829191
 Cu	1.78968200519	1.88507322486	-25.2633220454
 Cu	4.07111122768	3.09304656082	-24.8739997714
 Al	9.17009726228	5.76247772756	-27.2428902671
 Cu	6.54565122875	2.909672366	-25.4594453038
 Cu	7.54573340959	3.52485544342	-22.9744657338
 Cu	8.81839984188	3.42851715024	-26.2695693749
 Cu	6.81853183145	4.72000896659	-27.3021124871
 Zr	7.64505629785	2.04089517015	-28.1779483005
 Zr	9.05994117946	5.38348218397	-24.3185460557
 Cu	13.6758217785	3.3450077487	-24.8315660962
 Zr	11.5540709258	3.68969958327	-26.5630965706
 Cu	17.4125595326	1.30418662771	-25.5991809884
 Zr	18.2228158873	5.20419890563	27.6798434879
 Zr	14.7361121327	4.95262854821	-22.6016932313
 Zr	16.5556348523	4.10908209505	-25.5346551141
 Cu	20.5912581894	5.79100928762	-23.5039547822
 Zr	18.740140336	6.28434310203	-25.7535988715
 Zr	21.6143832614	5.11270616223	-26.0050848451
 Zr	19.3588462222	3.42046781394	-24.3513698724
 Cu	24.2045171933	0.700899335317	-24.6383327316
 Cu	25.9535959947	5.00666179421	-24.5391269976
 Zr	25.8289128628	7.07441515626	-26.25416656
 Zr	26.9904475138	4.17920283506	-26.9924682319
 Zr	24.1055942315	3.29638659273	-25.65633454
 Zr	26.7450358141	1.87315444066	-24.8851308494
 Zr	-27.9845506899	4.53452771299	-24.1153707366
 Al	-24.0248512762	8.03488103158	-23.6418936316
 Al	-25.8616554089	8.87443266243	-25.8514472779
 Cu	-24.4136547391	10.3862791011	-28.2488207533
 Al	-23.249847321	8.38231769827	-27.4707193195
 Al	-18.769932497	7.39142645391	-26.6640105564
 Cu	-22.2604441044	6.00298149491	-26.9946875596
 Zr	-21.4507285666	7.91377808	-25.2703395358
 Al	-16.1773191411	6.93319816244	-27.9459822275
 Cu	-16.6120238743	10.6199400985	-24.9515951373
 Cu	-18.6422174258	9.43322144385	-25.3311453379
 Zr	-15.9682449391	12.6423331719	-26.6002975025
 Zr	-20.7246830394	10.3817997209	-26.8823521597
 Zr	-17.1895865398	9.81800539359	-27.5983611138
 Zr	-16.0478851688	7.8574983113	-25.3469535023
 Cu	-14.3859452206	8.70317408184	-27.692023913
 Cu	-10.5665858402	7.93888341684	-24.0948148673
 Zr	-11.7313127586	8.14550194239	-27.1075467846
 Zr	-13.9557914155	10.420513565	-25.5934598766
 Cu	-7.38518301791	9.65516085146	-27.352682524
 Cu	-9.64753979927	10.3732395159	-26.7130103735
 Cu	-8.92372603741	7.80741502536	-26.8052227159
 Zr	-9.43975284321	7.364158046	27.2390008307
 Al	-1.88624278915	9.20322633045	-27.4035509236
 Zr	-3.37463602821	7.73098195173	-23.7023483559
 Zr	-4.82477855634	9.36496124862	-26.2216510709
 Cu	-0.974146656535	8.29660871951	-25.1774635095
 Zr	1.86192534912	7.56966438871	-24.8145837068
 Zr	-0.00652902634933	6.9223857067	-27.2322809927
 Cu	3.19034642092	5.27115030095	-24.0909621205
 Cu	3.43422799756	9.32970506425	-26.1599497136
 Cu	7.2658565309	6.7244464974	-25.948896636
 Cu	5.59126794473	5.0617582046	-25.0177474158
 Zr	6.02100203628	8.95665247752	-25.3242335696
 Zr	8.81818458703	8.43155146756	-23.9891135139
 Zr	11.1172532146	7.1749179346	-25.8201033568
 Zr	8.76157924087	8.8234686777	-27.0121018012
 Zr	12.1218357616	6.96042545187	-22.115867736
 Zr	13.5618883896	9.66499248356	-21.3973508791
 Zr	14.8029110895	8.79865221055	-27.3683135384
 Zr	13.9486165299	6.34176449687	-25.1507967754
 Zr	12.9669669606	9.12669640891	-24.446064199
 Cu	17.6022361782	8.73082803892	-26.4498321251
 Cu	18.3929266896	8.94545493065	-24.0140446013
 Cu	18.6552809813	9.81519414126	27.8128993087
 Cu	16.4027858283	7.07571758565	-24.820622951
 Zr	15.8660074646	9.72493472187	-24.6372746123
 Zr	19.6220270168	10.4248403919	-25.9951988338
 Al	21.0549528076	7.94739676384	-24.964008598
 Cu	21.1443273419	9.92006057117	-28.1748221759
 Zr	22.9206954516	7.95050866547	-27.0655932831
 Cu	26.558576629	9.48585140963	-24.6025583595
 Cu	25.1388346801	9.7860262153	-26.9268504219
 Zr	-27.9665344429	7.52911320032	-24.6518541723
 Zr	27.9020121197	9.43669410311	-27.0754545117
 Al	-26.7698134294	14.242672035	-27.4835598639
 Al	-27.9060173897	10.6976738123	-24.5877244903
 Zr	-26.0015893462	11.6976885791	-26.3999868974
 Zr	-27.7115686214	13.715323535	-24.6741349659
 Zr	-24.2811879241	14.3377980411	-26.0114563235
 Cu	-23.1370800957	12.2179046823	-27.1610343326
 Cu	-20.7844648504	13.1812007908	-27.272336831
 Zr	-23.4835779846	10.3331091686	-25.2000711796
 Zr	-21.8911152388	12.8898426122	-24.6716926414
 Zr	-18.7740796258	12.4136057295	-25.3493476832
 Zr	-16.5390367102	14.5409121357	-24.2556361164
 Zr	-18.5019667655	14.9458555625	-27.0952954921
 Zr	-15.4790295168	15.6373816145	-26.9991429641
 Al	-10.749117887	12.9682728958	27.222598536
 Al	-13.3980036685	13.4775722173	-25.7401493693
 Cu	-11.3241361222	10.0811447265	-24.9558675766
 Zr	-12.1998405104	11.1637064236	-27.6135952956
 Zr	-14.9047281418	11.2791694743	27.5351606018
 Zr	-13.4415279928	13.8969827503	28.0111335558
 Zr	-10.337762117	13.2075182063	-26.4208265903
 Al	-8.48489434117	11.80777898	28.1230768463
 Al	-9.62137555266	11.6522910949	-24.2415788804
 Zr	-7.26980895444	11.9687842954	-25.8125487676
 Cu	-6.48194828356	14.4238419962	-24.1506872528
 Zr	-2.28377882703	10.5232751859	-24.8947871028
 Zr	-2.53273944591	11.9136018038	-28.0496726813
 Zr	-2.58015369875	14.6171371616	-23.9327956851
 Zr	-4.43346164229	12.5871508574	-25.5633606455
 Al	-0.859060540921	12.81696855	-25.6317892758
 Cu	1.44695880743	13.7824503782	-25.4344941172
 Cu	-0.853036538389	12.5491660193	-23.1752002198
 Zr	0.747367700159	10.0316465745	-26.6624184202
 Zr	0.754135624763	12.8147814376	-27.9395502581
 Al	3.81016645742	13.5423516495	-26.1819419722
 Cu	2.66754537756	11.51102272	-25.4269305391
 Cu	5.76815011625	12.9799121511	-27.7733499222
 Cu	5.31578699403	11.4908880743	-25.8909069205
 Zr	3.36128058005	14.1934567394	27.6650242632
 Zr	3.58185072699	11.1564573786	-28.257523748
 Al	6.43881255142	10.2788044854	-27.9596391845
 Al	6.51717918386	14.1359350861	-25.6810827046
 Cu	8.46637627635	13.5865061671	-24.1507521387
 Zr	10.3914451187	10.7567108931	-25.277890524
 Zr	8.23459394465	12.125234437	-26.622311612
 Cu	12.1654089603	11.7760048173	-23.4558230709
 Cu	13.0267910439	14.0874527205	26.8192050575
 Zr	10.8475486323	13.7502497579	-25.1478650991
 Zr	13.6004849328	11.6670062343	-26.049773911
 Al	19.0350952485	13.3296695545	-26.356994773
 Cu	15.7859915004	13.5520889319	-25.6557508051
 Zr	16.7406526457	11.392780986	-27.1652484883
 Zr	21.565440491	14.8987114422	-25.9796954089
 Al	23.6541861632	12.5624158477	-25.1271325581
 Cu	21.9012721712	14.3167273873	27.7500156517
 Zr	22.0748570092	12.2052191034	-27.3220939051
 Al	26.5871929049	15.4239769797	-25.3972515689
 Cu	24.8115347895	12.0165869933	-27.8575814124
 Zr	26.3540053721	10.7014403887	26.9493075882
 Zr	26.3775499021	12.306175584	-25.6333760724
 Cu	-26.5594693836	16.3488748086	-26.1326668887
 Cu	-25.0109955596	15.9814251667	-28.1312275839
 Zr	-25.9881110486	18.7645493123	-27.9323655079
 Al	-20.2141415829	16.5971695512	27.7717420602
 Zr	-24.043698007	17.3784627292	-25.4083264082
 Zr	-21.2563061233	17.9235591923	-24.0956548518
 Zr	-20.0041515062	18.786086968	-26.8541304827
 Zr	-21.354044051	15.7723625735	-26.1437737024
 Zr	-22.6424929866	14.6712606261	27.8872713274
 Zr	-22.826261943	17.6742351976	-28.2228984552
 Al	-15.1002492897	17.3109346221	-24.8105361081
 Zr	-16.1138507451	19.2822747941	-22.9943891066
 Zr	-17.931718528	17.260962223	-25.1726241431
 Zr	-17.4585215851	17.6042461602	28.1117414939
 Al	-10.7171119889	17.2011970737	-23.8884168037
 Cu	-13.8910546885	15.2467025799	-24.0574498175
 Zr	-12.5946896612	16.7789190667	-26.5894334733
 Al	-9.76873764114	16.1497271723	-26.3354667712
 Cu	-11.5584143214	15.0330030312	-24.8579884092
 Cu	-7.92244338597	14.6454770365	-25.963725126
 Cu	-11.0122200737	15.1627191352	-28.2639769238
 Zr	-7.10589673647	16.5384968888	-27.715104045
 Cu	-5.76352858638	19.4177353282	-23.7135272612
 Cu	-2.57704349524	14.3240940961	-26.7230953171
 Zr	-4.81938064741	18.5493948581	-26.0456661492
 Zr	-4.95561926535	15.5079525993	-26.0763063552
 Cu	-2.73540295411	16.9310022192	-25.1629724126